ITEM: TIMESTEP
0
ITEM: NUMBER OF ATOMS
5
ITEM: BOX BOUNDS pp pp pp
0.0	4.500000e+00
0.0	1.000000e+00
0.0	6.000000e+00
ITEM: ATOMS id type x y z
1  1  2.67583  0.05432  1.15145
2  1  0.93241  0.89325  2.31451
3  1  1.23424  0.43142  3.96893
4  2  4.42636  0.23451  4.96905
5  2  3.00023  0.55556  5.98693
