ITEM: TIMESTEP
0
ITEM: NUMBER OF ATOMS
5
ITEM: BOX BOUNDS pp pp pp
0.0	4.500000e+00
0.0	1.000000e+00
0.0	6.000000e+00
ITEM: ATOMS id type x y z
1  1  2.67583  0.05432  1.151450e+00
2  1  0.93241  0.89325  2.314510e+00
3  1  1.23424  0.43142  3.968930e+00
4  2  4.42636  0.23451  4.969050e+00
5  2  3.00023  0.55556  5.986930e+00
ITEM: TIMESTEP
1
ITEM: NUMBER OF ATOMS
5
ITEM: BOX BOUNDS pp pp pp
0.0	4.500000e+00
0.0	1.000000e+00
0.0	6.000000e+00
ITEM: ATOMS id type x y z
1  1  2.67583  0.05432  2.151450e+00
2  1  0.93241  0.89325  3.314510e+00
3  1  1.23424  0.43142  4.968930e+00
4  2  4.42636  0.23451  5.969050e+00
5  2  3.00023  0.55556  6.986930e+00
ITEM: TIMESTEP
2
ITEM: NUMBER OF ATOMS
5
ITEM: BOX BOUNDS pp pp pp
0.0	4.500000e+00
0.0	1.000000e+00
0.0	6.000000e+00
ITEM: ATOMS id type x y z
1  1  2.67583  0.05432  3.151450e+00
2  1  0.93241  0.89325  4.314510e+00
3  1  1.23424  0.43142  5.968930e+00
4  2  4.42636  0.23451  6.969050e+00
5  2  3.00023  0.55556  7.986930e+00
ITEM: TIMESTEP
3
ITEM: NUMBER OF ATOMS
5
ITEM: BOX BOUNDS pp pp pp
0.0	4.500000e+00
0.0	1.000000e+00
0.0	6.000000e+00
ITEM: ATOMS id type x y z
1  1  2.67583  0.05432  4.151450e+00
2  1  0.93241  0.89325  5.314510e+00
3  1  1.23424  0.43142  6.968930e+00
4  2  4.42636  0.23451  7.969050e+00
5  2  3.00023  0.55556  8.986930e+00
ITEM: TIMESTEP
4
ITEM: NUMBER OF ATOMS
5
ITEM: BOX BOUNDS pp pp pp
0.0	4.500000e+00
0.0	1.000000e+00
0.0	6.000000e+00
ITEM: ATOMS id type x y z
1  1  2.67583  0.05432  5.151450e+00
2  1  0.93241  0.89325  6.314510e+00
3  1  1.23424  0.43142  7.968930e+00
4  2  4.42636  0.23451  8.969049e+00
5  2  3.00023  0.55556  9.986930e+00
