# the first three lines are comments...
# columns in order: id type q x y z ix iy iz
# input file for LAMMPS generated by exma
5 atoms
2 atom types

0.0 	 4.500000e+00 	 xlo xhi
0.0 	 1.000000e+00 	 ylo yhi
0.0 	 6.000000e+00 	 zlo zhi

Atoms

1  1  -0.3356  2.67583  0.05432  1.15145  0  2  -2
2  1  -0.32636  0.93241  0.89325  2.31451  0  3  -1
3  1  -0.34256  1.23424  0.43142  3.96893  1  0  0
4  2  0.54365  4.42636  0.23451  4.96905  -1  0  0
5  2  0.46463  3.00023  0.55556  5.98693  0  1  1
