ITEM: TIMESTEP
0
ITEM: NUMBER OF ATOMS
5
ITEM: BOX BOUNDS pp pp pp
0.0	4.500000e+00
0.0	1.000000e+00
0.0	6.000000e+00
ITEM: ATOMS id type q x y z ix iy iz
1	1	-3.356000e-01	2.675830e+00	5.432000e-02	1.151450e+00	0	2	-2
2	1	-3.263600e-01	9.324100e-01	8.932500e-01	2.314510e+00	0	3	-1
3	1	-3.425600e-01	1.234240e+00	4.314200e-01	3.968930e+00	1	0	0
4	2	5.436500e-01	4.426360e+00	2.345100e-01	4.969050e+00	-1	0	0
5	2	4.646300e-01	3.000230e+00	5.555600e-01	5.986930e+00	0	1	1
